HEADER
"PSFversion" "1.00"
"I47v" "xi47v"
"I42v" "xi42v"
"I52v" "xi52v"
"V1v" "v1v"
"I47n I42n I52n" "XNOR2"
"V3v" "v3v"
"V1n" "analogLib_vdc_hspiceD"
"V2v" "v2v"
"V0v" "v0v"
"I48v" "xi48v"
"V3n V2n V0n" "analogLib_vpulse_hspiceD"
"I41v" "xi41v"
"I51v" "xi51v"
"I60v" "xi60v"
"I48n I41n I51n" "XOR2"
"I37v" "xi37v"
"I60n" "NAND3"
"I45v" "xi45v"
"I53v" "xi53v"
"I36v" "xi36v"
"I37n I45n I53n" "NOR2"
"I43v" "xi43v"
"I55v" "xi55v"
"I36n I43n I55n" "NAND2"
