HEADER
"PSFversion" "1.00"
"OUT_NAND2x1v" "out_nand2x1v"
"OUT_NAND2x2v" "out_nand2x2v"
"OUT_NAND2x3v" "out_nand2x3v"
"OUT_NOR2x1v" "out_nor2x1v"
"OUT_NOR2x2v" "out_nor2x2v"
"OUT_NOR2x3v" "out_nor2x3v"
"OUT_XOR2x1v" "out_xor2x1v"
"OUT_XOR2x2v" "out_xor2x2v"
"OUT_XOR2x3v" "out_xor2x3v"
"OUT_XNOR2x1v" "out_xnor2x1v"
"OUT_XNOR2x2v" "out_xnor2x2v"
"OUT_XNOR2x3v" "out_xnor2x3v"
"OUT_NAND3v" "out_nand3v"
"Av" "av"
"Bv" "bv"
"Cv" "cv"
"VDD!v" "vdd!v"
"GND!v" "0v"
