HEADER
"PSFversion" "1.00"
"OUTv" "outv"
"Bv" "bv"
"VDDv" "vddv"
"Av" "av"
"Cv" "cv"
