HEADER
"PSFversion" "1.00"
"M2v" "m2v"
"M0v" "m0v"
"M3v" "m3v"
"M2n M0n" "NCSU_Devices_FreePDK45_NMOS_VTG_hspiceD"
"M4v" "m4v"
"M3n M4n" "NCSU_Devices_FreePDK45_PMOS_VTG_hspiceD"
"Av" "(FUNCTION (plus (root \"M3/G\") (root \"M2/G\")))v"
"Bv" "(FUNCTION (plus (root \"M0/G\") (root \"M4/G\")))v"
"VDDv" "(FUNCTION (plus (root \"M3/B\") (root \"M3/S\") (root \"M4/B\") (root \"M4/S\")))v"
"OUTv" "(FUNCTION (plus (root \"M3/D\") (root \"M0/D\") (root \"M4/D\")))v"
