HEADER
"PSFversion" "1.00"
"Bv" "bv"
"OUTv" "outv"
"VDDv" "vddv"
"Av" "av"
