HEADER
"PSFversion" "1.00"
"M3v" "m3v"
"M2v" "m2v"
"M5v" "m5v"
"M3n M2n" "NCSU_Devices_FreePDK45_NMOS_VTG_hspiceD"
"M4v" "m4v"
"M5n M4n" "NCSU_Devices_FreePDK45_PMOS_VTG_hspiceD"
"Av" "(FUNCTION (plus (root \"M2/G\") (root \"M5/G\")))v"
"Bv" "(FUNCTION (plus (root \"M3/G\") (root \"M4/G\")))v"
"VDDv" "(FUNCTION (plus (root \"M5/B\") (root \"M5/S\")))v"
"OUTv" "(FUNCTION (plus (root \"M2/D\") (root \"M3/D\") (root \"M4/D\")))v"
