HEADER
"PSFversion" "1.00"
"M2v" "m2v"
"M1v" "m1v"
"M0v" "m0v"
"M5v" "m5v"
"M2n M1n M0n" "NCSU_Devices_FreePDK45_NMOS_VTG_hspiceD"
"M4v" "m4v"
"M3v" "m3v"
"M5n M4n M3n" "NCSU_Devices_FreePDK45_PMOS_VTG_hspiceD"
"Av" "(FUNCTION (plus (root \"M0/G\") (root \"M3/G\")))v"
"Bv" "(FUNCTION (plus (root \"M1/G\") (root \"M4/G\")))v"
"Cv" "(FUNCTION (plus (root \"M2/G\") (root \"M5/G\")))v"
"VDDv" "(FUNCTION (plus (root \"M5/B\") (root \"M5/S\")))v"
"GNDv" "(FUNCTION (plus (root \"M0/S\") (root \"M0/B\") (root \"M1/S\") (root \"M1/B\") (root \"M2/S\") (root \"M2/B\")))v"
"OUTv" "(FUNCTION (plus (root \"M0/D\") (root \"M1/D\") (root \"M2/D\") (root \"M3/D\")))v"
