HEADER
"PSFversion" "1.00"
"OUTv" "outv"
"INv" "inv"
"GNDv" "gndv"
"VDDv" "vddv"
