HEADER
"PSFversion" "1.00"
"M11v" "m11v"
"M10v" "m10v"
"M9v" "m9v"
"M8v" "m8v"
"M1v" "m1v"
"M0v" "m0v"
"M7v" "m7v"
"M11n M10n M9n M8n M1n M0n" "NCSU_Devices_FreePDK45_NMOS_VTG_hspiceD"
"M6v" "m6v"
"M5v" "m5v"
"M4v" "m4v"
"M3v" "m3v"
"M2v" "m2v"
"M7n M6n M5n M4n M3n M2n" "NCSU_Devices_FreePDK45_PMOS_VTG_hspiceD"
"Av" "(FUNCTION (plus (root \"M0/G\") (root \"M2/G\") (root \"M5/G\") (root \"M11/G\")))v"
"Bv" "(FUNCTION (plus (root \"M1/G\") (root \"M3/G\") (root \"M8/G\") (root \"M4/G\")))v"
"VDDv" "(FUNCTION (plus (root \"M2/B\") (root \"M2/S\") (root \"M3/B\") (root \"M3/S\") (root \"M4/B\") (root \"M4/S\") (root \"M6/B\") (root \"M6/S\")))v"
"OUTv" "(FUNCTION (plus (root \"M8/D\") (root \"M5/D\") (root \"M10/D\") (root \"M7/D\")))v"
