HEADER
"PSFversion" "1.00"
"_Bv" "_bv"
"_Av" "_av"
"Av" "av"
"OUTv" "outv"
"VDDv" "vddv"
"Bv" "bv"
