HEADER
"PSFversion" "1.00"
"VDDv" "vddv"
"OUTv" "outv"
"Av" "av"
"_Av" "_av"
"_Bv" "_bv"
"Bv" "bv"
